<?xml version="1.0"?>
<VTKFile type="UnstructuredGrid" version="0.1" byte_order="LittleEndian">
	<UnstructuredGrid>
		<Piece NumberOfPoints="12" NumberOfCells="14">
			<Points>
				<DataArray type="Float32" NumberOfComponents="3" format="ascii">
					0 0 0
2 0 0
2 2 0
0 2 0
1 0 0
2 1 0
1 2 0
0 1 0
0.5875 1.4125 0
0.75 0.75 0
1.29583 1.2875 0
1.4375 0.5625 0

				</DataArray>
			</Points>
			<Cells>
				<DataArray type="Int32" Name="connectivity" format="ascii">
5 2 10
7 0 9
0 4 9
2 6 10
4 1 11
1 5 11
6 3 8
3 7 8
5 10 11
8 7 9
8 9 10
9 4 11
10 9 11
6 8 10

				</DataArray>
				<DataArray type="Int32" Name="offsets" format="ascii">
3
6
9
12
15
18
21
24
27
30
33
36
39
42

				</DataArray>
				<DataArray type="UInt8" Name="types" format="ascii">
5
5
5
5
5
5
5
5
5
5
5
5
5
5

				</DataArray>
			</Cells>
			<PointData>
<DataArray type="Float32" Name="u" NumberOfComponents="1" format="ascii">
-inf
-inf
-inf
-inf
-inf
-inf
-inf
-inf
-inf
-inf
-inf
-inf

</DataArray>
			</PointData>
			<CellData>
			</CellData>
		</Piece>
	</UnstructuredGrid>
</VTKFile>

