<?xml version="1.0"?>
<VTKFile type="UnstructuredGrid" version="0.1" byte_order="LittleEndian">
	<UnstructuredGrid>
		<Piece NumberOfPoints="6561" NumberOfCells="12800">
			<Points>
				<DataArray type="Float32" NumberOfComponents="3" format="ascii">
					0 0 0
1 0 0
0 1 0
1 1 0
0.0125 0 0
0.025 0 0
0.0375 0 0
0.05 0 0
0.0625 0 0
0.075 0 0
0.0875 0 0
0.1 0 0
0.1125 0 0
0.125 0 0
0.1375 0 0
0.15 0 0
0.1625 0 0
0.175 0 0
0.1875 0 0
0.2 0 0
0.2125 0 0
0.225 0 0
0.2375 0 0
0.25 0 0
0.2625 0 0
0.275 0 0
0.2875 0 0
0.3 0 0
0.3125 0 0
0.325 0 0
0.3375 0 0
0.35 0 0
0.3625 0 0
0.375 0 0
0.3875 0 0
0.4 0 0
0.4125 0 0
0.425 0 0
0.4375 0 0
0.45 0 0
0.4625 0 0
0.475 0 0
0.4875 0 0
0.5 0 0
0.5125 0 0
0.525 0 0
0.5375 0 0
0.55 0 0
0.5625 0 0
0.575 0 0
0.5875 0 0
0.6 0 0
0.6125 0 0
0.625 0 0
0.6375 0 0
0.65 0 0
0.6625 0 0
0.675 0 0
0.6875 0 0
0.7 0 0
0.7125 0 0
0.725 0 0
0.7375 0 0
0.75 0 0
0.7625 0 0
0.775 0 0
0.7875 0 0
0.8 0 0
0.8125 0 0
0.825 0 0
0.8375 0 0
0.85 0 0
0.8625 0 0
0.875 0 0
0.8875 0 0
0.9 0 0
0.9125 0 0
0.925 0 0
0.9375 0 0
0.95 0 0
0.9625 0 0
0.975 0 0
0.9875 0 0
0.0125 1 0
0.025 1 0
0.0375 1 0
0.05 1 0
0.0625 1 0
0.075 1 0
0.0875 1 0
0.1 1 0
0.1125 1 0
0.125 1 0
0.1375 1 0
0.15 1 0
0.1625 1 0
0.175 1 0
0.1875 1 0
0.2 1 0
0.2125 1 0
0.225 1 0
0.2375 1 0
0.25 1 0
0.2625 1 0
0.275 1 0
0.2875 1 0
0.3 1 0
0.3125 1 0
0.325 1 0
0.3375 1 0
0.35 1 0
0.3625 1 0
0.375 1 0
0.3875 1 0
0.4 1 0
0.4125 1 0
0.425 1 0
0.4375 1 0
0.45 1 0
0.4625 1 0
0.475 1 0
0.4875 1 0
0.5 1 0
0.5125 1 0
0.525 1 0
0.5375 1 0
0.55 1 0
0.5625 1 0
0.575 1 0
0.5875 1 0
0.6 1 0
0.6125 1 0
0.625 1 0
0.6375 1 0
0.65 1 0
0.6625 1 0
0.675 1 0
0.6875 1 0
0.7 1 0
0.7125 1 0
0.725 1 0
0.7375 1 0
0.75 1 0
0.7625 1 0
0.775 1 0
0.7875 1 0
0.8 1 0
0.8125 1 0
0.825 1 0
0.8375 1 0
0.85 1 0
0.8625 1 0
0.875 1 0
0.8875 1 0
0.9 1 0
0.9125 1 0
0.925 1 0
0.9375 1 0
0.95 1 0
0.9625 1 0
0.975 1 0
0.9875 1 0
0 0.0125 0
0 0.025 0
0 0.0375 0
0 0.05 0
0 0.0625 0
0 0.075 0
0 0.0875 0
0 0.1 0
0 0.1125 0
0 0.125 0
0 0.1375 0
0 0.15 0
0 0.1625 0
0 0.175 0
0 0.1875 0
0 0.2 0
0 0.2125 0
0 0.225 0
0 0.2375 0
0 0.25 0
0 0.2625 0
0 0.275 0
0 0.2875 0
0 0.3 0
0 0.3125 0
0 0.325 0
0 0.3375 0
0 0.35 0
0 0.3625 0
0 0.375 0
0 0.3875 0
0 0.4 0
0 0.4125 0
0 0.425 0
0 0.4375 0
0 0.45 0
0 0.4625 0
0 0.475 0
0 0.4875 0
0 0.5 0
0 0.5125 0
0 0.525 0
0 0.5375 0
0 0.55 0
0 0.5625 0
0 0.575 0
0 0.5875 0
0 0.6 0
0 0.6125 0
0 0.625 0
0 0.6375 0
0 0.65 0
0 0.6625 0
0 0.675 0
0 0.6875 0
0 0.7 0
0 0.7125 0
0 0.725 0
0 0.7375 0
0 0.75 0
0 0.7625 0
0 0.775 0
0 0.7875 0
0 0.8 0
0 0.8125 0
0 0.825 0
0 0.8375 0
0 0.85 0
0 0.8625 0
0 0.875 0
0 0.8875 0
0 0.9 0
0 0.9125 0
0 0.925 0
0 0.9375 0
0 0.95 0
0 0.9625 0
0 0.975 0
0 0.9875 0
1 0.0125 0
1 0.025 0
1 0.0375 0
1 0.05 0
1 0.0625 0
1 0.075 0
1 0.0875 0
1 0.1 0
1 0.1125 0
1 0.125 0
1 0.1375 0
1 0.15 0
1 0.1625 0
1 0.175 0
1 0.1875 0
1 0.2 0
1 0.2125 0
1 0.225 0
1 0.2375 0
1 0.25 0
1 0.2625 0
1 0.275 0
1 0.2875 0
1 0.3 0
1 0.3125 0
1 0.325 0
1 0.3375 0
1 0.35 0
1 0.3625 0
1 0.375 0
1 0.3875 0
1 0.4 0
1 0.4125 0
1 0.425 0
1 0.4375 0
1 0.45 0
1 0.4625 0
1 0.475 0
1 0.4875 0
1 0.5 0
1 0.5125 0
1 0.525 0
1 0.5375 0
1 0.55 0
1 0.5625 0
1 0.575 0
1 0.5875 0
1 0.6 0
1 0.6125 0
1 0.625 0
1 0.6375 0
1 0.65 0
1 0.6625 0
1 0.675 0
1 0.6875 0
1 0.7 0
1 0.7125 0
1 0.725 0
1 0.7375 0
1 0.75 0
1 0.7625 0
1 0.775 0
1 0.7875 0
1 0.8 0
1 0.8125 0
1 0.825 0
1 0.8375 0
1 0.85 0
1 0.8625 0
1 0.875 0
1 0.8875 0
1 0.9 0
1 0.9125 0
1 0.925 0
1 0.9375 0
1 0.95 0
1 0.9625 0
1 0.975 0
1 0.9875 0
0.0125 0.0125 0
0.0125 0.025 0
0.0125 0.0375 0
0.0125 0.05 0
0.0125 0.0625 0
0.0125 0.075 0
0.0125 0.0875 0
0.0125 0.1 0
0.0125 0.1125 0
0.0125 0.125 0
0.0125 0.1375 0
0.0125 0.15 0
0.0125 0.1625 0
0.0125 0.175 0
0.0125 0.1875 0
0.0125 0.2 0
0.0125 0.2125 0
0.0125 0.225 0
0.0125 0.2375 0
0.0125 0.25 0
0.0125 0.2625 0
0.0125 0.275 0
0.0125 0.2875 0
0.0125 0.3 0
0.0125 0.3125 0
0.0125 0.325 0
0.0125 0.3375 0
0.0125 0.35 0
0.0125 0.3625 0
0.0125 0.375 0
0.0125 0.3875 0
0.0125 0.4 0
0.0125 0.4125 0
0.0125 0.425 0
0.0125 0.4375 0
0.0125 0.45 0
0.0125 0.4625 0
0.0125 0.475 0
0.0125 0.4875 0
0.0125 0.5 0
0.0125 0.5125 0
0.0125 0.525 0
0.0125 0.5375 0
0.0125 0.55 0
0.0125 0.5625 0
0.0125 0.575 0
0.0125 0.5875 0
0.0125 0.6 0
0.0125 0.6125 0
0.0125 0.625 0
0.0125 0.6375 0
0.0125 0.65 0
0.0125 0.6625 0
0.0125 0.675 0
0.0125 0.6875 0
0.0125 0.7 0
0.0125 0.7125 0
0.0125 0.725 0
0.0125 0.7375 0
0.0125 0.75 0
0.0125 0.7625 0
0.0125 0.775 0
0.0125 0.7875 0
0.0125 0.8 0
0.0125 0.8125 0
0.0125 0.825 0
0.0125 0.8375 0
0.0125 0.85 0
0.0125 0.8625 0
0.0125 0.875 0
0.0125 0.8875 0
0.0125 0.9 0
0.0125 0.9125 0
0.0125 0.925 0
0.0125 0.9375 0
0.0125 0.95 0
0.0125 0.9625 0
0.0125 0.975 0
0.0125 0.9875 0
0.025 0.0125 0
0.025 0.025 0
0.025 0.0375 0
0.025 0.05 0
0.025 0.0625 0
0.025 0.075 0
0.025 0.0875 0
0.025 0.1 0
0.025 0.1125 0
0.025 0.125 0
0.025 0.1375 0
0.025 0.15 0
0.025 0.1625 0
0.025 0.175 0
0.025 0.1875 0
0.025 0.2 0
0.025 0.2125 0
0.025 0.225 0
0.025 0.2375 0
0.025 0.25 0
0.025 0.2625 0
0.025 0.275 0
0.025 0.2875 0
0.025 0.3 0
0.025 0.3125 0
0.025 0.325 0
0.025 0.3375 0
0.025 0.35 0
0.025 0.3625 0
0.025 0.375 0
0.025 0.3875 0
0.025 0.4 0
0.025 0.4125 0
0.025 0.425 0
0.025 0.4375 0
0.025 0.45 0
0.025 0.4625 0
0.025 0.475 0
0.025 0.4875 0
0.025 0.5 0
0.025 0.5125 0
0.025 0.525 0
0.025 0.5375 0
0.025 0.55 0
0.025 0.5625 0
0.025 0.575 0
0.025 0.5875 0
0.025 0.6 0
0.025 0.6125 0
0.025 0.625 0
0.025 0.6375 0
0.025 0.65 0
0.025 0.6625 0
0.025 0.675 0
0.025 0.6875 0
0.025 0.7 0
0.025 0.7125 0
0.025 0.725 0
0.025 0.7375 0
0.025 0.75 0
0.025 0.7625 0
0.025 0.775 0
0.025 0.7875 0
0.025 0.8 0
0.025 0.8125 0
0.025 0.825 0
0.025 0.8375 0
0.025 0.85 0
0.025 0.8625 0
0.025 0.875 0
0.025 0.8875 0
0.025 0.9 0
0.025 0.9125 0
0.025 0.925 0
0.025 0.9375 0
0.025 0.95 0
0.025 0.9625 0
0.025 0.975 0
0.025 0.9875 0
0.0375 0.0125 0
0.0375 0.025 0
0.0375 0.0375 0
0.0375 0.05 0
0.0375 0.0625 0
0.0375 0.075 0
0.0375 0.0875 0
0.0375 0.1 0
0.0375 0.1125 0
0.0375 0.125 0
0.0375 0.1375 0
0.0375 0.15 0
0.0375 0.1625 0
0.0375 0.175 0
0.0375 0.1875 0
0.0375 0.2 0
0.0375 0.2125 0
0.0375 0.225 0
0.0375 0.2375 0
0.0375 0.25 0
0.0375 0.2625 0
0.0375 0.275 0
0.0375 0.2875 0
0.0375 0.3 0
0.0375 0.3125 0
0.0375 0.325 0
0.0375 0.3375 0
0.0375 0.35 0
0.0375 0.3625 0
0.0375 0.375 0
0.0375 0.3875 0
0.0375 0.4 0
0.0375 0.4125 0
0.0375 0.425 0
0.0375 0.4375 0
0.0375 0.45 0
0.0375 0.4625 0
0.0375 0.475 0
0.0375 0.4875 0
0.0375 0.5 0
0.0375 0.5125 0
0.0375 0.525 0
0.0375 0.5375 0
0.0375 0.55 0
0.0375 0.5625 0
0.0375 0.575 0
0.0375 0.5875 0
0.0375 0.6 0
0.0375 0.6125 0
0.0375 0.625 0
0.0375 0.6375 0
0.0375 0.65 0
0.0375 0.6625 0
0.0375 0.675 0
0.0375 0.6875 0
0.0375 0.7 0
0.0375 0.7125 0
0.0375 0.725 0
0.0375 0.7375 0
0.0375 0.75 0
0.0375 0.7625 0
0.0375 0.775 0
0.0375 0.7875 0
0.0375 0.8 0
0.0375 0.8125 0
0.0375 0.825 0
0.0375 0.8375 0
0.0375 0.85 0
0.0375 0.8625 0
0.0375 0.875 0
0.0375 0.8875 0
0.0375 0.9 0
0.0375 0.9125 0
0.0375 0.925 0
0.0375 0.9375 0
0.0375 0.95 0
0.0375 0.9625 0
0.0375 0.975 0
0.0375 0.9875 0
0.05 0.0125 0
0.05 0.025 0
0.05 0.0375 0
0.05 0.05 0
0.05 0.0625 0
0.05 0.075 0
0.05 0.0875 0
0.05 0.1 0
0.05 0.1125 0
0.05 0.125 0
0.05 0.1375 0
0.05 0.15 0
0.05 0.1625 0
0.05 0.175 0
0.05 0.1875 0
0.05 0.2 0
0.05 0.2125 0
0.05 0.225 0
0.05 0.2375 0
0.05 0.25 0
0.05 0.2625 0
0.05 0.275 0
0.05 0.2875 0
0.05 0.3 0
0.05 0.3125 0
0.05 0.325 0
0.05 0.3375 0
0.05 0.35 0
0.05 0.3625 0
0.05 0.375 0
0.05 0.3875 0
0.05 0.4 0
0.05 0.4125 0
0.05 0.425 0
0.05 0.4375 0
0.05 0.45 0
0.05 0.4625 0
0.05 0.475 0
0.05 0.4875 0
0.05 0.5 0
0.05 0.5125 0
0.05 0.525 0
0.05 0.5375 0
0.05 0.55 0
0.05 0.5625 0
0.05 0.575 0
0.05 0.5875 0
0.05 0.6 0
0.05 0.6125 0
0.05 0.625 0
0.05 0.6375 0
0.05 0.65 0
0.05 0.6625 0
0.05 0.675 0
0.05 0.6875 0
0.05 0.7 0
0.05 0.7125 0
0.05 0.725 0
0.05 0.7375 0
0.05 0.75 0
0.05 0.7625 0
0.05 0.775 0
0.05 0.7875 0
0.05 0.8 0
0.05 0.8125 0
0.05 0.825 0
0.05 0.8375 0
0.05 0.85 0
0.05 0.8625 0
0.05 0.875 0
0.05 0.8875 0
0.05 0.9 0
0.05 0.9125 0
0.05 0.925 0
0.05 0.9375 0
0.05 0.95 0
0.05 0.9625 0
0.05 0.975 0
0.05 0.9875 0
0.0625 0.0125 0
0.0625 0.025 0
0.0625 0.0375 0
0.0625 0.05 0
0.0625 0.0625 0
0.0625 0.075 0
0.0625 0.0875 0
0.0625 0.1 0
0.0625 0.1125 0
0.0625 0.125 0
0.0625 0.1375 0
0.0625 0.15 0
0.0625 0.1625 0
0.0625 0.175 0
0.0625 0.1875 0
0.0625 0.2 0
0.0625 0.2125 0
0.0625 0.225 0
0.0625 0.2375 0
0.0625 0.25 0
0.0625 0.2625 0
0.0625 0.275 0
0.0625 0.2875 0
0.0625 0.3 0
0.0625 0.3125 0
0.0625 0.325 0
0.0625 0.3375 0
0.0625 0.35 0
0.0625 0.3625 0
0.0625 0.375 0
0.0625 0.3875 0
0.0625 0.4 0
0.0625 0.4125 0
0.0625 0.425 0
0.0625 0.4375 0
0.0625 0.45 0
0.0625 0.4625 0
0.0625 0.475 0
0.0625 0.4875 0
0.0625 0.5 0
0.0625 0.5125 0
0.0625 0.525 0
0.0625 0.5375 0
0.0625 0.55 0
0.0625 0.5625 0
0.0625 0.575 0
0.0625 0.5875 0
0.0625 0.6 0
0.0625 0.6125 0
0.0625 0.625 0
0.0625 0.6375 0
0.0625 0.65 0
0.0625 0.6625 0
0.0625 0.675 0
0.0625 0.6875 0
0.0625 0.7 0
0.0625 0.7125 0
0.0625 0.725 0
0.0625 0.7375 0
0.0625 0.75 0
0.0625 0.7625 0
0.0625 0.775 0
0.0625 0.7875 0
0.0625 0.8 0
0.0625 0.8125 0
0.0625 0.825 0
0.0625 0.8375 0
0.0625 0.85 0
0.0625 0.8625 0
0.0625 0.875 0
0.0625 0.8875 0
0.0625 0.9 0
0.0625 0.9125 0
0.0625 0.925 0
0.0625 0.9375 0
0.0625 0.95 0
0.0625 0.9625 0
0.0625 0.975 0
0.0625 0.9875 0
0.075 0.0125 0
0.075 0.025 0
0.075 0.0375 0
0.075 0.05 0
0.075 0.0625 0
0.075 0.075 0
0.075 0.0875 0
0.075 0.1 0
0.075 0.1125 0
0.075 0.125 0
0.075 0.1375 0
0.075 0.15 0
0.075 0.1625 0
0.075 0.175 0
0.075 0.1875 0
0.075 0.2 0
0.075 0.2125 0
0.075 0.225 0
0.075 0.2375 0
0.075 0.25 0
0.075 0.2625 0
0.075 0.275 0
0.075 0.2875 0
0.075 0.3 0
0.075 0.3125 0
0.075 0.325 0
0.075 0.3375 0
0.075 0.35 0
0.075 0.3625 0
0.075 0.375 0
0.075 0.3875 0
0.075 0.4 0
0.075 0.4125 0
0.075 0.425 0
0.075 0.4375 0
0.075 0.45 0
0.075 0.4625 0
0.075 0.475 0
0.075 0.4875 0
0.075 0.5 0
0.075 0.5125 0
0.075 0.525 0
0.075 0.5375 0
0.075 0.55 0
0.075 0.5625 0
0.075 0.575 0
0.075 0.5875 0
0.075 0.6 0
0.075 0.6125 0
0.075 0.625 0
0.075 0.6375 0
0.075 0.65 0
0.075 0.6625 0
0.075 0.675 0
[...]
			<PointData>
<DataArray type="Float32" Name="u" NumberOfComponents="1" format="ascii">
0
-0.958924
-0.958924
0.708861
0.0624593
0.124675
0.186403
0.247404
0.307439
0.366273
0.423676
0.479426
0.533303
0.585097
0.634607
0.681639
0.726009
0.767544
0.806081
0.841471
0.873575
0.902268
0.927437
0.948985
0.966827
0.980893
0.991129
0.997495
0.999966
0.998531
0.993198
0.983986
0.970932
0.954086
0.933514
0.909297
0.88153
0.85032
0.815789
0.778073
0.737319
0.693685
0.647343
0.598472
0.547265
0.49392
0.438647
0.381661
0.323185
0.263446
0.202679
0.14112
0.0790102
0.0165919
-0.0458912
-0.108195
-0.170077
-0.231294
-0.291608
-0.350783
-0.408589
-0.464799
-0.519194
-0.571561
-0.621697
-0.669405
-0.714499
-0.756802
-0.796151
-0.832391
-0.86538
-0.894989
-0.921104
-0.943622
-0.962455
-0.97753
-0.988788
-0.996184
-0.99969
-0.999293
-0.994993
-0.986808
-0.974769
-0.958813
-0.95848
-0.957921
-0.957134
-0.956111
-0.954846
-0.953331
-0.951553
-0.949502
-0.947164
-0.944524
-0.941565
-0.938272
-0.934624
-0.930602
-0.926185
-0.921351
-0.916077
-0.91034
-0.904115
-0.897377
-0.890102
-0.882263
-0.873834
-0.864789
-0.855103
-0.84475
-0.833703
-0.821939
-0.809431
-0.796158
-0.782095
-0.767221
-0.751516
-0.73496
-0.717535
-0.699226
-0.680018
-0.6599
-0.63886
-0.616891
-0.593988
-0.570147
-0.545369
-0.519656
-0.493013
-0.465449
-0.436976
-0.407607
-0.377363
-0.346264
-0.314334
-0.281603
-0.248103
-0.213868
-0.178939
-0.143357
-0.107169
-0.0704258
-0.0331792
0.00451348
0.0425923
0.0809938
0.119652
0.158496
0.197455
0.236452
0.275411
0.31425
0.352888
0.391239
0.429218
0.466736
0.503704
0.540032
0.575628
0.610401
0.644259
0.677109
0.0624593
0.124675
0.186403
0.247404
0.307439
0.366273
0.423676
0.479426
0.533303
0.585097
0.634607
0.681639
0.726009
0.767544
0.806081
0.841471
0.873575
0.902268
0.927437
0.948985
0.966827
0.980893
0.991129
0.997495
0.999966
0.998531
0.993198
0.983986
0.970932
0.954086
0.933514
0.909297
0.88153
0.85032
0.815789
0.778073
0.737319
0.693685
0.647343
0.598472
0.547265
0.49392
0.438647
0.381661
0.323185
0.263446
0.202679
0.14112
0.0790102
0.0165919
-0.0458912
-0.108195
-0.170077
-0.231294
-0.291608
-0.350783
-0.408589
-0.464799
-0.519194
-0.571561
-0.621697
-0.669405
-0.714499
-0.756802
-0.796151
-0.832391
-0.86538
-0.894989
-0.921104
-0.943622
-0.962455
-0.97753
-0.988788
-0.996184
-0.99969
-0.999293
-0.994993
-0.986808
-0.974769
-0.958813
-0.95848
-0.957921
-0.957134
-0.956111
-0.954846
-0.953331
-0.951553
-0.949502
-0.947164
-0.944524
-0.941565
-0.938272
-0.934624
-0.930602
-0.926185
-0.921351
-0.916077
-0.91034
-0.904115
-0.897377
-0.890102
-0.882263
-0.873834
-0.864789
-0.855103
-0.84475
-0.833703
-0.821939
-0.809431
-0.796158
-0.782095
-0.767221
-0.751516
-0.73496
-0.717535
-0.699226
-0.680018
-0.6599
-0.63886
-0.616891
-0.593988
-0.570147
-0.545369
-0.519656
-0.493013
-0.465449
-0.436976
-0.407607
-0.377363
-0.346264
-0.314334
-0.281603
-0.248103
-0.213868
-0.178939
-0.143357
-0.107169
-0.0704258
-0.0331792
0.00451348
0.0425923
0.0809938
0.119652
0.158496
0.197455
0.236452
0.275411
0.31425
0.352888
0.391239
0.429218
0.466736
0.503704
0.540032
0.575628
0.610401
0.644259
0.677109
0.0374537
0.0779633
0.138193
0.204741
0.273112
0.341449
0.408801
0.474576
0.538351
0.59979
0.658607
0.714552
0.7674
0.816947
0.863006
0.905408
0.944
0.978645
1.00922
1.03562
1.05776
1.07557
1.08898
1.09797
1.1025
1.10258
1.09821
1.08943
1.07627
1.05881
1.03711
1.01128
0.981429
0.947677
0.910168
0.869056
0.824512
0.776717
0.725867
0.672168
0.615839
0.557107
0.496209
0.433391
0.368907
0.303016
0.235984
0.168081
0.0995801
0.0307575
-0.0381092
-0.106742
-0.174863
-0.242197
-0.308471
-0.373414
-0.436762
-0.498255
-0.557641
-0.614672
-0.669112
-0.720732
-0.769312
-0.814643
-0.856526
-0.894773
-0.929209
-0.959667
-0.985994
-1.00804
-1.02568
-1.03878
-1.04722
-1.05086
-1.04958
-1.0432
-1.0315
-1.01412
-0.990382
0.0779633
0.0929341
0.139504
0.201241
0.270067
0.341887
0.414459
0.486435
0.55693
0.625314
0.691105
0.753918
0.813431
0.869367
0.921488
0.969582
1.01347
1.05298
1.08797
1.11834
1.14397
1.16478
1.18072
1.19175
1.19783
1.19897
1.19519
1.18651
1.17299
1.1547
1.13174
1.1042
1.07222
1.03593
0.995494
0.951087
0.902896
0.851127
0.795996
0.737733
0.676582
0.612795
0.546638
0.478384
0.408313
0.336716
0.263887
0.190127
0.115739
0.0410312
-0.033688
-0.108109
-0.181923
-0.254821
-0.3265
-0.396657
-0.464997
-0.531228
-0.595066
-0.656235
-0.714464
-0.769495
-0.821078
-0.868972
-0.912947
-0.952783
-0.988273
-1.01922
-1.04542
-1.0667
-1.08288
-1.09379
-1.09923
-1.09901
-1.0929
-1.08062
-1.06178
-1.03583
-1.00187
0.138193
0.139504
0.173716
0.227718
0.293021
0.364421
0.438697
0.513782
0.588288
0.661232
0.731883
0.799676
0.864156
0.924949
0.981742
1.03426
1.08229
1.12561
1.16407
1.19753
1.22585
1.24897
1.26679
1.27928
1.28641
1.28817
1.28458
1.27569
1.26154
1.24222
1.21782
1.18847
1.1543
1.11547
1.07215
1.02453
0.972815
0.917237
0.858028
0.795443
0.729745
0.661213
0.590135
0.516811
0.441547
0.36466
0.286472
0.207311
0.12751
0.0474042
-0.0326681
-0.112369
-0.191359
-0.269302
-0.345864
-0.420715
-0.493527
-0.563983
-0.631768
-0.696577
-0.758112
-0.816086
-0.87022
-0.920245
-0.965903
-1.00694
-1.04313
-1.07423
-1.10002
-1.12028
-1.13479
-1.14334
-1.14569
-1.14159
-1.13074
-1.11279
-1.08728
-1.05359
-1.01086
0.204741
0.201241
0.227718
0.274973
0.335748
0.404839
0.478638
0.554634
0.631052
0.706597
0.780301
0.851411
0.919334
0.983584
1.04376
1.09953
1.15061
1.19675
1.23776
1.27347
1.30373
1.32845
1.34754
1.36093
1.36861
1.37056
1.36679
1.35736
1.34231
1.32174
1.29575
1.26447
1.22805
1.18666
1.14047
1.0897
1.03458
0.975341
0.912241
0.845552
0.775563
0.70257
0.626886
0.548833
0.468743
0.386956
0.303819
0.219687
0.134917
0.0498722
-0.0350834
-0.119584
-0.203266
-0.285764
-0.366717
-0.445768
-0.522566
-0.596762
-0.668018
-0.736002
-0.800391
-0.860869
-0.917133
-0.968888
-1.01585
-1.05774
-1.0943
-1.12526
-1.15038
-1.1694
-1.18208
-1.18817
-1.18739
-1.17945
-1.16402
-1.14071
-1.10905
-1.06842
-1.01809
0.273112
0.270067
0.293021
0.335748
0.39256
0.458851
0.531088
0.606622
0.683464
0.76011
0.835403
0.908434
0.978477
1.04494
1.10735
1.16528
1.21841
1.26644
1.30915
1.34632
1.37781
1.40347
1.42322
1.43699
1.44473
1.44644
1.44214
1.43185
1.41564
1.39361
1.36587
1.33254
1.29379
1.24981
1.20077
1.14692
1.08848
1.02571
0.958885
0.888297
0.814249
0.737061
0.657065
0.574603
0.49003
0.403708
0.316008
0.227307
0.137987
0.0484352
-0.0409606
-0.129811
-0.217725
-0.304315
-0.389196
-0.471985
-0.552307
-0.629789
-0.704068
-0.77479
-0.841605
-0.904177
-0.962178
-1.01529
-1.0632
-1.10562
-1.14226
-1.17282
-1.19704
-1.21465
-1.22537
-1.22892
-1.225
-1.21332
-1.1935
-1.16517
-1.12786
-1.08102
-1.02401
0.341449
0.341887
0.364421
0.404839
0.458851
0.522624
0.592963
0.667303
0.74361
0.820278
0.896033
0.969854
1.04091
1.10853
1.17214
1.23127
1.28555
1.33463
1.37823
1.41615
1.44817
1.47417
1.49402
1.50765
1.51501
1.51608
1.51087
1.49943
1.48181
1.45811
1.42844
1.39296
1.35181
1.3052
1.25333
1.19643
1.13476
1.06858
0.998191
0.923891
0.846004
0.764868
0.680833
0.594262
0.505528
0.415015
0.323115
0.230225
0.13675
0.0430986
-0.0503196
-0.143092
-0.234807
-0.325054
-0.413424
-0.499514
-0.582925
-0.663264
-0.740145
-0.813192
-0.882036
-0.946317
-1.00569
-1.05981
-1.10835
-1.151
-1.18744
-1.21738
-1.24051
-1.25655
-1.2652
-1.26617
-1.25915
-1.24382
-1.21983
-1.18679
-1.14428
-1.09182
-1.02886
0.408801
0.414459
0.438697
0.478638
0.531088
0.592963
0.661506
0.734366
0.809583
0.885547
0.960937
1.03467
1.10584
1.17371
1.23765
1.29715
1.35177
1.40113
1.44493
1.4829
1.51485
1.54061
1.56004
1.57306
1.5796
1.57965
1.57321
1.56032
1.54104
1.51548
1.48374
1.44597
1.40236
1.35309
1.29838
1.23849
1.17366
1.10419
1.03037
0.952533
0.871011
0.786159
0.698343
0.607945
0.515354
0.420975
0.325216
0.228497
0.13124
0.033873
-0.0631726
-0.159465
-0.254572
-0.348062
-0.439509
-0.528486
-0.614577
-0.697368
-0.776454
-0.851439
-0.921936
-0.987567
-1.04797
-1.10277
-1.15165
-1.19425
-1.23025
-1.25935
-1.28121
-1.29555
-1.30205
-1.30042
-1.29033
-1.27148
-1.24351
-1.20606
-1.15875
-1.10115
-1.03283
0.474576
0.486435
0.513782
0.554634
0.606622
0.667303
0.734366
0.805732
0.87959
0.954396
1.02884
1.10181
1.17239
1.23978
1.30333
1.36247
1.41672
1.46569
1.50904
1.54648
1.57779
1.60278
1.62131
1.63327
1.63861
1.63728
1.6293
1.6147
1.59353
1.56591
1.53195
1.4918
1.44565
1.39369
1.33615
1.27329
1.20538
1.13272
1.05562
0.974405
0.889442
0.801093
0.70974
0.61578
0.519621
0.421681
0.322389
0.222179
0.121492
0.0207751
-0.0795238
-0.178954
-0.277066
-0.373411
-0.467541
-0.559016
-0.647399
-0.73226
-0.813177
-0.889736
-0.961534
-1.02818
-1.08928
-1.14447
-1.1934
-1.2357
-1.27105
-1.29911
-1.31955
-1.33208
-1.33636
-1.33211
-1.319
-1.29672
-1.26495
-1.22335
-1.17157
-1.10925
-1.03603
0.538351
0.55693
0.588288
0.631052
0.683464
0.74361
0.809583
0.87959
0.952007
1.02539
1.0985
1.17023
1.23967
1.306
1.36854
1.42671
1.48001
1.52801
1.57034
1.60671
1.63687
1.66063
1.67782
1.68833
1.69209
1.68906
1.67925
1.66268
1.63943
1.60957
1.57325
1.53062
1.48186
1.42719
1.36683
1.30104
1.23012
1.15437
1.0741
0.989677
0.901455
0.809817
0.715158
0.61789
0.518435
0.417227
0.314708
0.21133
0.107549
0.00382795
-0.0993694
-0.201576
-0.302326
-0.401155
-0.497599
-0.591202
-0.681511
-0.768081
-0.850474
-0.928263
-1.00103
-1.06837
-1.12988
-1.18517
-1.23389
-1.27566
-1.31014
-1.33699
-1.35587
-1.36648
-1.3685
-1.36161
-1.34552
-1.31992
-1.2845
-1.23897
-1.183
-1.1163
-1.03856
0.59979
0.625314
0.661232
0.706597
0.76011
0.820278
0.885547
0.954396
1.02539
1.09724
1.16875
1.2389
1.30678
1.3716
1.43265
1.48935
1.54118
1.5877
1.62853
1.66336
1.69193
1.71403
1.72949
1.73819
1.74005
1.73503
1.72313
1.70437
1.67883
1.64659
1.60779
1.56259
1.51117
1.45375
1.39057
1.32191
1.24804
1.16929
1.08599
0.998504
0.9072
0.812472
0.714729
0.614395
0.511904
0.407705
0.302254
0.196014
0.0894582
-0.0169384
-0.122697
-0.227336
-0.330376
-0.431337
-0.529743
-0.625123
-0.71701
-0.804947
-0.888483
-0.967178
-1.0406
-1.10833
-1.16996
-1.2251
-1.27337
-1.31439
-1.34781
-1.37328
-1.39048
-1.39908
-1.39876
-1.38924
-1.3702
-1.34136
-1.30244
-1.25315
-1.19323
-1.12242
-1.04047
0.658607
0.691105
0.731883
0.780301
0.835403
0.896033
0.960937
1.02884
1.0985
1.16875
1.23853
1.30687
1.37289
1.43582
1.495
1.54981
1.59975
1.64438
1.68329
1.71618
1.74277
1.76284
1.77623
1.7828
1.78247
1.7752
1.76097
1.73983
1.71182
1.67706
1.63568
1.58783
1.5337
1.47353
1.40755
1.33604
1.2593
1.17765
1.09144
1.00103
0.906817
0.809192
0.708578
0.605409
0.500134
0.393209
0.285105
0.176298
0.0672712
-0.0414866
-0.149484
-0.256228
-0.361225
-0.463985
-0.564018
-0.660842
-0.753979
-0.842959
-0.927321
-1.00661
-1.0804
-1.14824
-1.20973
-1.26446
-1.31205
-1.35211
-1.38429
-1.40824
-1.42363
-1.43013
-1.42744
-1.41526
-1.3933
-1.36129
-1.31898
-1.2661
-1.20242
-1.12772
-1.04181
0.714552
0.753918
0.799676
0.851411
0.908434
0.969854
1.03467
1.10181
1.17023
1.2389
1.30687
1.37322
1.43716
1.49796
1.55495
1.60755
1.65526
1.69763
1.73428
1.76487
1.78915
1.80688
1.8179
1.82206
1.81929
1.80953
1.79278
1.76907
1.73847
1.70107
1.657
1.60644
1.54958
1.48664
1.41787
1.34357
1.26403
1.17958
1.09058
0.997405
0.900442
0.800107
0.696828
0.591049
0.483228
0.373834
0.263347
0.152253
0.0410473
-0.0697712
-0.1797
-0.288236
-0.394875
-0.499114
-0.600456
-0.698407
-0.79248
-0.882195
-0.967082
-1.04668
-1.12054
-1.18823
-1.24933
-1.30342
-1.35011
-1.38903
-1.4198
-1.44208
-1.45555
-1.45987
-1.45474
-1.43989
-1.41504
-1.37992
-1.3343
-1.27795
-1.21067
-1.13228
-1.04262
0.7674
0.813431
0.864156
0.919334
0.978477
1.04091
1.10584
1.17239
1.23967
1.30678
1.37289
1.43716
1.49887
1.55732
1.61189
1.66202
1.70721
1.74704
1.78113
1.80915
1.83083
1.84596
1.85434
1.85586
1.85043
1.838
1.81855
1.79213
1.7588
1.71866
1.67184
1.61852
1.5589
1.4932
1.42168
1.34463
1.26237
1.17522
1.08356
0.98775
0.888205
0.785342
0.679599
0.571428
0.461295
0.349678
0.237067
0.123957
0.0108527
-0.101738
-0.213304
-0.323332
-0.431309
-0.536725
-0.639071
-0.737848
-0.832558
-0.922715
-1.00784
-1.08747
-1.16115
-1.22843
-1.28889
-1.34212
-1.38772
-1.4253
-1.45451
-1.47499
-1.48642
-1.48848
-1.48087
-1.46333
-1.43559
-1.3974
-1.34855
-1.28884
-1.21809
-1.13616
-1.04291
0.816947
0.869367
0.924949
0.983584
1.04494
1.10853
1.17371
1.23978
1.306
1.3716
1.43582
1.49796
1.55732
1.61327
1.66524
1.71269
1.75516
1.79222
1.82351
1.84872
1.86757
1.87986
1.88541
1.88408
1.87581
1.86053
1.83825
1.80899
1.77283
1.72987
1.68025
1.62414
1.56175
1.4933
1.41907
1.33935
1.25444
1.1647
1.07049
0.972198
0.870233
0.765023
0.657013
0.546661
0.434443
0.320843
0.206359
0.0914945
-0.0232389
-0.137325
-0.250245
-0.361477
-0.470503
-0.576803
-0.679864
-0.779176
-0.874239
-0.96456
-1.04965
-1.12905
-1.20229
-1.26893
-1.32853
-1.38068
-1.42499
-1.46107
-1.48856
-1.50711
-1.5164
-1.51612
-1.50598
-1.48572
-1.45509
-1.41387
-1.36185
-1.29886
-1.22474
-1.13939
-1.0427
0.863006
0.921488
0.981742
1.04376
1.10735
1.17214
1.23765
1.30333
1.36854
1.43265
1.495
1.55495
1.61189
1.66524
1.71447
1.75909
1.79865
1.83276
1.86107
1.88327
1.89911
1.90838
1.91091
1.90659
1.89532
1.87707
1.85183
1.81965
1.78058
1.73475
1.68229
1.62337
1.55822
1.48706
1.41016
1.32782
1.24036
1.14813
1.05151
0.950875
0.846653
0.739275
0.629191
0.516867
0.402785
0.287435
0.171322
0.0549559
-0.0611453
-0.176459
-0.29046
-0.402621
-0.512416
-0.619321
-0.722818
-0.822391
-0.917534
-1.00775
-1.09255
-1.17147
-1.24403
-1.30979
-1.36832
-1.4192
-1.46204
-1.49645
-1.52207
-1.53857
-1.54562
-1.54292
-1.53019
-1.50718
-1.47367
-1.42942
-1.37428
-1.30807
-1.23068
-1.14201
-1.04199
0.905408
0.969582
1.03426
1.09953
1.16528
1.23127
1.29715
1.36247
1.42671
1.48935
1.54981
1.60755
1.66202
1.71269
1.75909
1.80076
1.83729
1.8683
1.89347
1.91252
1.9252
1.93131
1.9307
1.92324
1.90887
1.88754
1.85926
1.82407
1.78205
1.73331
1.67799
1.61627
1.54838
1.47454
1.39503
1.31016
1.22024
1.12564
1.02673
0.923907
0.817592
0.708224
0.596258
0.482168
0.366438
0.249567
0.132062
0.0144403
-0.102776
-0.219058
-0.333876
-0.446699
-0.556996
-0.664238
-0.767903
-0.867471
-0.962435
-1.05229
-1.13655
-1.21474
-1.2864
-1.35107
-1.40832
-1.45774
-1.49893
-1.53151
-1.55513
-1.56945
-1.57416
-1.56897
-1.5536
-1.52782
-1.4914
-1.44415
-1.38591
-1.31654
-1.23594
-1.14403
-1.04078
0.944
1.01347
1.08229
1.15061
1.21841
1.28555
1.35177
1.41672
1.48001
1.54118
1.59975
1.65526
1.70721
1.75516
1.79865
1.83729
1.87068
1.8985
1.92043
1.93621
1.94561
1.94846
1.94459
1.93391
1.91634
1.89187
1.86049
1.82225
1.77724
1.72557
1.6674
1.6029
1.5323
1.45583
1.37379
1.28647
1.1942
1.09735
0.996287
0.891423
0.783179
0.671999
0.558344
0.44269
0.325527
0.207357
0.0886931
-0.0299448
-0.148029
-0.265029
-0.38041
-0.493638
-0.604177
-0.711498
-0.815073
-0.914383
-1.00892
-1.09817
-1.18166
-1.25889
-1.32942
-1.39279
-1.44856
-1.49634
-1.53572
-1.56632
-1.58781
-1.59984
-1.60212
-1.59435
-1.57629
-1.54769
-1.50835
-1.45811
-1.39679
-1.3243
-1.24055
-1.14547
-1.03907
0.978645
1.05298
1.12561
1.19675
1.26644
1.33463
1.40113
1.46569
1.52801
1.5877
1.64438
1.69763
1.74704
1.79222
1.83276
1.8683
1.8985
1.92304
1.94165
1.95409
1.96014
1.95963
1.95244
1.93847
1.91766
1.88999
1.85547
1.81417
1.76616
1.71157
1.65056
1.58331
1.51006
1.43104
1.34653
1.25686
1.16236
1.06337
0.960304
0.853552
0.743547
0.630735
0.515581
0.398565
0.28018
0.160932
0.0413367
-0.0780828
-0.196796
-0.31427
-0.429966
-0.543348
-0.653881
-0.76103
-0.864269
-0.963076
-1.05694
-1.14536
-1.22784
-1.3039
-1.37309
-1.43496
-1.48908
-1.53503
-1.57244
-1.60093
-1.62015
-1.62978
-1.62953
-1.61912
-1.5983
-1.56685
-1.52458
-1.47133
-1.40696
-1.33138
-1.24451
-1.14633
-1.03684
1.00922
1.08797
1.16407
1.23776
1.30915
1.37823
1.44493
1.50904
1.57034
1.62853
1.68329
1.73428
1.78113
1.82351
1.86107
1.89347
1.92043
1.94165
1.95689
1.96593
1.96857
1.96468
1.95412
1.93682
1.91273
1.88184
1.84418
1.79981
1.74881
1.69133
1.62752
1.55758
1.48173
1.40023
1.31336
1.22145
1.12482
1.02385
0.918913
0.810433
0.698836
0.584573
0.468112
0.349934
0.230537
0.110427
-0.00987581
-0.129847
-0.248956
-0.366665
-0.482436
-0.595732
-0.706015
-0.812752
-0.915416
-1.01348
-1.10645
-1.1938
-1.27506
-1.34974
-1.4174
-1.47757
-1.52985
-1.57382
-1.6091
-1.63533
-1.65217
-1.6593
-1.65643
-1.6433
-1.61967
-1.58533
-1.54011
-1.48385
-1.41643
-1.33778
-1.24785
-1.14661
-1.03408
1.03562
1.11834
1.19753
1.27347
1.34632
1.41615
1.4829
1.54648
1.60671
1.66336
1.71618
1.76487
1.80915
1.84872
1.88327
1.91252
1.93621
1.95409
1.96593
1.97154
1.97076
1.96344
1.9495
1.92886
1.90149
1.86739
1.82659
1.77917
1.72522
1.66489
1.59833
1.52576
1.4474
1.36351
1.27439
1.18035
1.08173
0.978897
0.872253
0.762206
0.649191
0.53366
0.416083
0.296945
0.176743
0.0559868
-0.0648038
-0.185102
-0.304376
-0.422088
-0.5377
-0.650674
-0.760474
-0.866566
-0.968424
-1.06553
-1.15737
-1.24344
-1.32327
-1.39637
-1.46229
-1.5206
-1.57087
-1.6127
-1.64571
-1.66955
-1.68388
-1.6884
-1.68283
-1.66691
-1.64041
-1.60314
-1.55494
-1.49567
-1.42521
-1.34352
-1.25054
-1.14628
-1.03078
1.05776
1.14397
1.22585
1.30373
1.37781
1.44817
1.51485
1.57779
1.63687
1.69193
1.74277
1.78915
1.83083
1.86757
1.89911
1.9252
1.94561
1.96014
1.96857
1.97076
1.96654
1.95581
1.93849
1.91452
1.88388
1.84659
1.80269
1.75226
1.69541
1.63229
1.56306
1.48794
1.40716
1.32099
1.22972
1.13368
1.0332
0.928667
0.820469
0.709024
0.594766
0.478152
0.359653
0.239754
0.118954
-0.00223591
-0.123296
-0.2437
-0.362914
-0.480402
-0.595627
-0.708052
-0.81714
-0.922361
-1.02319
-1.11911
-1.20961
-1.2942
-1.37239
-1.44372
-1.50773
-1.56399
-1.61208
-1.65162
-1.68222
-1.70354
-1.71526
-1.71708
-1.70872
-1.68994
-1.66053
-1.62029
-1.56909
-1.50679
-1.4333
-1.34857
-1.25258
-1.14535
-1.02692
1.07557
1.16478
1.24897
1.32845
1.40347
1.47417
1.54061
1.60278
1.66063
1.71403
1.76284
1.80688
1.84596
1.87986
1.90838
1.93131
1.94846
1.95963
1.96468
1.96344
1.95581
1.94169
1.92101
1.89375
1.85988
1.81944
1.77249
1.71912
1.65943
1.59359
1.52178
1.44421
1.36112
1.27278
1.17949
1.08158
0.979392
0.873306
0.763718
0.651045
0.535725
0.418215
0.298987
0.178528
0.0573367
-0.0640761
-0.185191
-0.305481
-0.424415
-0.541458
-0.656073
-0.767726
-0.875882
-0.980013
-1.0796
-1.17412
-1.26308
-1.34598
-1.42235
-1.49171
-1.55364
-1.60768
-1.65345
-1.69055
-1.71861
-1.7373
-1.74629
-1.74531
-1.73408
-1.71238
-1.68
-1.63676
-1.58253
-1.5172
-1.44068
-1.35293
-1.25396
-1.14378
-1.02246
1.08898
1.18072
1.26679
1.34754
1.42322
1.49402
1.56004
1.62131
1.67782
1.72949
1.77623
1.8179
1.85434
1.88541
1.91091
1.9307
1.94459
1.95244
1.95412
1.9495
1.93849
1.92101
1.89703
1.86651
1.82948
1.78596
1.73602
1.67977
1.61734
1.54888
1.47458
1.39467
1.30938
1.219
1.12383
1.0242
0.920452
0.812975
0.702164
0.58844
0.472241
0.354025
0.234264
0.113445
-0.00793207
-0.129358
-0.250315
-0.370277
-0.488715
-0.605094
-0.718882
-0.829545
-0.936554
-1.03938
-1.13752
-1.23044
-1.31766
-1.39868
-1.47303
-1.54026
-1.59993
-1.65161
-1.69489
-1.72941
-1.75481
-1.77075
-1.77692
-1.77305
-1.75889
-1.7342
-1.6988
-1.65253
-1.59525
-1.52687
-1.44732
-1.35658
-1.25464
-1.14155
-1.01739
1.09797
1.19175
1.27928
1.36093
1.43699
1.50765
1.57306
1.63327
1.68833
1.73819
1.7828
1.82206
1.85586
1.88408
1.90659
1.92324
1.93391
1.93847
1.93682
1.92886
1.91452
1.89375
1.86651
1.83281
1.79268
1.74615
1.69332
1.6343
1.56921
1.49824
1.42157
1.33944
1.25209
1.1598
1.06289
0.961689
0.856547
0.747845
0.635986
0.521391
0.4045
0.285769
0.165672
0.0446948
-0.076664
-0.197896
-0.318484
-0.437906
-0.555634
-0.671137
-0.783885
-0.893348
-0.999002
-1.10032
-1.1968
-1.28793
-1.37321
-1.45217
-1.52434
-1.58926
-1.64651
-1.69566
-1.73633
-1.76815
-1.79076
-1.80384
-1.80709
-1.80026
-1.78308
-1.75535
-1.7169
-1.66756
-1.60721
-1.53578
-1.45321
-1.35948
-1.2546
-1.13864
-1.01168
1.1025
1.19783
1.28641
1.36861
1.44473
1.51501
1.5796
1.63861
1.69209
1.74005
1.78247
1.81929
1.85043
1.87581
1.89532
1.90887
1.91634
1.91766
1.91273
1.90149
1.88388
1.85988
1.82948
1.79268
1.74953
1.7001
1.64447
1.58277
1.51515
1.44178
1.36287
1.27865
1.18937
1.09534
0.996842
0.894228
0.787855
0.678103
0.565375
0.450093
0.332698
0.213646
0.093411
-0.027523
-0.148659
-0.26949
-0.389502
-0.508174
-0.624983
-0.739401